,Tg,Mn,Mw,SMILES_start,SMILES_end,SMILES_rep_u1,molpercent_rep_u1,SMILES_rep_u2,molpercent_rep_u2,PSMILES_rep_u1,PSMILES_rep_u2,name,canonicalized_PSMILES_rep_u1,canonicalized_PSMILES_rep_u2
88,61.0,16000.0,21760.0,[C](C)(C)(C#N),[S]C(=S)c1ccccc1,[CH2][C](C)(C(=O)OC1CCCCC1),0.5,[CH2][C](C)(C(=O)OCc1ccccc1),0.5,[*]CC([*])(C)(C(=O)OC1CCCCC1),[*]CC([*])(C)(C(=O)OCc1ccccc1),,[*]CC([*])(C)C(=O)OC1CCCCC1,[*]CC([*])(C)C(=O)OCc1ccccc1
89,91.3,16700.0,25050.0,[C](C)(C)(C#N),[S]C(=S)c1ccccc1,[CH2][C](C)(C(=O)OC1CCCCC1),0.5,[CH2][C](C)(C(=O)Oc1ccccc1),0.5,[*]CC([*])(C)(C(=O)OC1CCCCC1),[*]CC([*])(C)(C(=O)Oc1ccccc1),,[*]CC([*])(C)C(=O)OC1CCCCC1,[*]CC([*])(C)C(=O)Oc1ccccc1
90,125.8,17100.0,24282.0,[C](C)(C)(C#N),[S]C(=S)c1ccccc1,[CH2][C](C)(C(=O)OC1CCCCC1),0.5,[CH2][C](C)(C(=O)OC1C[C@H]2CC[C@]1(C)C2(C)C),0.5,[*]CC([*])(C)(C(=O)OC1CCCCC1),[*]CC([*])(C)(C(=O)OC1C[C@H]2CC[C@]1(C)C2(C)C),,[*]CC([*])(C)C(=O)OC1CCCCC1,[*]CC([*])(C)C(=O)OC1C[C@H]2CC[C@]1(C)C2(C)C
91,73.7,9900.0,16632.0,[C](C)(C)(C#N),[S]C(=S)c1ccccc1,[CH2][C](C)(C(=O)OC1CCCCC1),0.5,[CH2][CH](C(=O)OC(C)(C)C),0.5,[*]CC([*])(C)(C(=O)OC1CCCCC1),[*]CC([*])(C(=O)OC(C)(C)C),,[*]CC([*])(C)C(=O)OC1CCCCC1,[*]CC([*])C(=O)OC(C)(C)C
92,48.0,8600.0,14964.0,[C](C)(C)(C#N),[S]C(=S)c1ccccc1,[CH2][C](C)(C(=O)OC1CCCCC1),0.5,[CH2][CH](C(=O)OC1CCCCC1),0.5,[*]CC([*])(C)(C(=O)OC1CCCCC1),[*]CC([*])(C(=O)OC1CCCCC1),,[*]CC([*])(C)C(=O)OC1CCCCC1,[*]CC([*])C(=O)OC1CCCCC1
93,83.6,15800.0,22120.0,[C](C)(C)(C#N),[S]C(=S)c1ccccc1,[CH2][C](C)(C(=O)OC1CCCCC1),0.5,[CH2][CH](C(=O)OC1C[C@H]2CC[C@]1(C)C2(C)C),0.5,[*]CC([*])(C)(C(=O)OC1CCCCC1),[*]CC([*])(C(=O)OC1C[C@H]2CC[C@]1(C)C2(C)C),,[*]CC([*])(C)C(=O)OC1CCCCC1,[*]CC([*])C(=O)OC1C[C@H]2CC[C@]1(C)C2(C)C
94,63.0,15200.0,21888.0,[C](C)(C)(C#N),[S]C(=S)c1ccccc1,[CH2][C](C)(C(=O)OCc1ccccc1),1.0,,,[*]CC([*])(C)(C(=O)OCc1ccccc1),,,[*]CC([*])(C)C(=O)OCc1ccccc1,
95,79.9,19600.0,31360.0,[C](C)(C)(C#N),[S]C(=S)c1ccccc1,[CH2][C](C)(C(=O)OCc1ccccc1),0.5,[CH2][C](C)(C(=O)Oc1ccccc1),0.5,[*]CC([*])(C)(C(=O)OCc1ccccc1),[*]CC([*])(C)(C(=O)Oc1ccccc1),,[*]CC([*])(C)C(=O)OCc1ccccc1,[*]CC([*])(C)C(=O)Oc1ccccc1
96,96.8,14200.0,22010.0,[C](C)(C)(C#N),[S]C(=S)c1ccccc1,[CH2][C](C)(C(=O)OCc1ccccc1),0.5,[CH2][C](C)(C(=O)OC1C[C@H]2CC[C@]1(C)C2(C)C),0.5,[*]CC([*])(C)(C(=O)OCc1ccccc1),[*]CC([*])(C)(C(=O)OC1C[C@H]2CC[C@]1(C)C2(C)C),,[*]CC([*])(C)C(=O)OCc1ccccc1,[*]CC([*])(C)C(=O)OC1C[C@H]2CC[C@]1(C)C2(C)C
97,47.9,7700.0,11858.0,[C](C)(C)(C#N),[S]C(=S)c1ccccc1,[CH2][C](C)(C(=O)OCc1ccccc1),0.5,[CH2][CH](C(=O)OC(C)(C)C),0.5,[*]CC([*])(C)(C(=O)OCc1ccccc1),[*]CC([*])(C(=O)OC(C)(C)C),,[*]CC([*])(C)C(=O)OCc1ccccc1,[*]CC([*])C(=O)OC(C)(C)C
98,44.8,11400.0,15618.000000000002,[C](C)(C)(C#N),[S]C(=S)c1ccccc1,[CH2][C](C)(C(=O)OCc1ccccc1),0.5,[CH2][CH](C(=O)OC1CCCCC1),0.5,[*]CC([*])(C)(C(=O)OCc1ccccc1),[*]CC([*])(C(=O)OC1CCCCC1),,[*]CC([*])(C)C(=O)OCc1ccccc1,[*]CC([*])C(=O)OC1CCCCC1
99,57.1,11900.0,18445.0,[C](C)(C)(C#N),[S]C(=S)c1ccccc1,[CH2][C](C)(C(=O)OCc1ccccc1),0.5,[CH2][CH](C(=O)OC1C[C@H]2CC[C@]1(C)C2(C)C),0.5,[*]CC([*])(C)(C(=O)OCc1ccccc1),[*]CC([*])(C(=O)OC1C[C@H]2CC[C@]1(C)C2(C)C),,[*]CC([*])(C)C(=O)OCc1ccccc1,[*]CC([*])C(=O)OC1C[C@H]2CC[C@]1(C)C2(C)C
100,0.2,14000.0,22260.0,[C](C)(C)(C#N),[S]C(=S)c1ccccc1,[CH2][C](C)(C(=O)OCc1ccccc1),0.5,[CH2][CH](C(=O)OCCCCCCCCCCCCCCCC),0.5,[*]CC([*])(C)(C(=O)OCc1ccccc1),[*]CC([*])(C(=O)OCCCCCCCCCCCCCCCC),,[*]CC([*])(C)C(=O)OCc1ccccc1,[*]CC([*])C(=O)OCCCCCCCCCCCCCCCC
101,118.6,17100.0,24282.0,[C](C)(C)(C#N),[S]C(=S)c1ccccc1,[CH2][C](C)(C(=O)Oc1ccccc1),1.0,,,[*]CC([*])(C)(C(=O)Oc1ccccc1),,,[*]CC([*])(C)C(=O)Oc1ccccc1,
102,122.2,14300.0,23023.0,[C](C)(C)(C#N),[S]C(=S)c1ccccc1,[CH2][C](C)(C(=O)Oc1ccccc1),0.5,[CH2][C](C)(C(=O)OC1C[C@H]2CC[C@]1(C)C2(C)C),0.5,[*]CC([*])(C)(C(=O)Oc1ccccc1),[*]CC([*])(C)(C(=O)OC1C[C@H]2CC[C@]1(C)C2(C)C),,[*]CC([*])(C)C(=O)Oc1ccccc1,[*]CC([*])(C)C(=O)OC1C[C@H]2CC[C@]1(C)C2(C)C
103,96.2,9800.0,14406.0,[C](C)(C)(C#N),[S]C(=S)c1ccccc1,[CH2][C](C)(C(=O)Oc1ccccc1),0.5,[CH2][CH](C(=O)OC(C)(C)C),0.5,[*]CC([*])(C)(C(=O)Oc1ccccc1),[*]CC([*])(C(=O)OC(C)(C)C),,[*]CC([*])(C)C(=O)Oc1ccccc1,[*]CC([*])C(=O)OC(C)(C)C
104,84.2,9600.0,18816.0,[C](C)(C)(C#N),[S]C(=S)c1ccccc1,[CH2][C](C)(C(=O)Oc1ccccc1),0.5,[CH2][CH](C(=O)OC1CCCCC1),0.5,[*]CC([*])(C)(C(=O)Oc1ccccc1),[*]CC([*])(C(=O)OC1CCCCC1),,[*]CC([*])(C)C(=O)Oc1ccccc1,[*]CC([*])C(=O)OC1CCCCC1
105,100.9,11400.0,18810.0,[C](C)(C)(C#N),[S]C(=S)c1ccccc1,[CH2][C](C)(C(=O)Oc1ccccc1),0.5,[CH2][CH](C(=O)OC1C[C@H]2CC[C@]1(C)C2(C)C),0.5,[*]CC([*])(C)(C(=O)Oc1ccccc1),[*]CC([*])(C(=O)OC1C[C@H]2CC[C@]1(C)C2(C)C),,[*]CC([*])(C)C(=O)Oc1ccccc1,[*]CC([*])C(=O)OC1C[C@H]2CC[C@]1(C)C2(C)C
106,16.4,14400.0,21600.0,[C](C)(C)(C#N),[S]C(=S)c1ccccc1,[CH2][C](C)(C(=O)Oc1ccccc1),0.5,[CH2][CH](C(=O)OCCCCCCCCCCCCCCCC),0.5,[*]CC([*])(C)(C(=O)Oc1ccccc1),[*]CC([*])(C(=O)OCCCCCCCCCCCCCCCC),,[*]CC([*])(C)C(=O)Oc1ccccc1,[*]CC([*])C(=O)OCCCCCCCCCCCCCCCC
107,133.1,9400.0,16262.0,[C](C)(C)(C#N),[S]C(=S)c1ccccc1,[CH2][C](C)(C(=O)OC1C[C@H]2CC[C@]1(C)C2(C)C),0.5,[CH2][CH](C(=O)OC(C)(C)C),0.5,[*]CC([*])(C)(C(=O)OC1C[C@H]2CC[C@]1(C)C2(C)C),[*]CC([*])(C(=O)OC(C)(C)C),,[*]CC([*])(C)C(=O)OC1C[C@H]2CC[C@]1(C)C2(C)C,[*]CC([*])C(=O)OC(C)(C)C
108,107.9,12700.0,18542.0,[C](C)(C)(C#N),[S]C(=S)c1ccccc1,[CH2][C](C)(C(=O)OC1C[C@H]2CC[C@]1(C)C2(C)C),0.5,[CH2][CH](C(=O)OC1CCCCC1),0.5,[*]CC([*])(C)(C(=O)OC1C[C@H]2CC[C@]1(C)C2(C)C),[*]CC([*])(C(=O)OC1CCCCC1),,[*]CC([*])(C)C(=O)OC1C[C@H]2CC[C@]1(C)C2(C)C,[*]CC([*])C(=O)OC1CCCCC1
109,145.9,14400.0,21600.0,[C](C)(C)(C#N),[S]C(=S)c1ccccc1,[CH2][C](C)(C(=O)OC1C[C@H]2CC[C@]1(C)C2(C)C),0.5,[CH2][CH](C(=O)OC1C[C@H]2CC[C@]1(C)C2(C)C),0.5,[*]CC([*])(C)(C(=O)OC1C[C@H]2CC[C@]1(C)C2(C)C),[*]CC([*])(C(=O)OC1C[C@H]2CC[C@]1(C)C2(C)C),,[*]CC([*])(C)C(=O)OC1C[C@H]2CC[C@]1(C)C2(C)C,[*]CC([*])C(=O)OC1C[C@H]2CC[C@]1(C)C2(C)C
110,42.9,12700.0,18542.0,[C](C)(C)(C#N),[S]C(=S)c1ccccc1,[CH2][CH](C(=O)OC(C)(C)C),1.0,,,[*]CC([*])(C(=O)OC(C)(C)C),,,[*]CC([*])C(=O)OC(C)(C)C,
111,32.1,7000.0,10850.0,[C](C)(C)(C#N),[S]C(=S)c1ccccc1,[CH2][CH](C(=O)OC(C)(C)C),0.5,[CH2][CH](C(=O)OC1CCCCC1),0.5,[*]CC([*])(C(=O)OC(C)(C)C),[*]CC([*])(C(=O)OC1CCCCC1),,[*]CC([*])C(=O)OC(C)(C)C,[*]CC([*])C(=O)OC1CCCCC1
112,66.8,9600.0,17376.0,[C](C)(C)(C#N),[S]C(=S)c1ccccc1,[CH2][CH](C(=O)OC(C)(C)C),0.5,[CH2][CH](C(=O)OC1C[C@H]2CC[C@]1(C)C2(C)C),0.5,[*]CC([*])(C(=O)OC(C)(C)C),[*]CC([*])(C(=O)OC1C[C@H]2CC[C@]1(C)C2(C)C),,[*]CC([*])C(=O)OC(C)(C)C,[*]CC([*])C(=O)OC1C[C@H]2CC[C@]1(C)C2(C)C
113,10.7,12600.0,19026.0,[C](C)(C)(C#N),[S]C(=S)c1ccccc1,[CH2][CH](C(=O)OC1CCCCC1),1.0,,,[*]CC([*])(C(=O)OC1CCCCC1),,,[*]CC([*])C(=O)OC1CCCCC1,
114,50.4,9600.0,17184.0,[C](C)(C)(C#N),[S]C(=S)c1ccccc1,[CH2][CH](C(=O)OC1CCCCC1),0.5,[CH2][CH](C(=O)OC1C[C@H]2CC[C@]1(C)C2(C)C),0.5,[*]CC([*])(C(=O)OC1CCCCC1),[*]CC([*])(C(=O)OC1C[C@H]2CC[C@]1(C)C2(C)C),,[*]CC([*])C(=O)OC1CCCCC1,[*]CC([*])C(=O)OC1C[C@H]2CC[C@]1(C)C2(C)C
115,105.5,17500.0,33775.0,[C](C)(C)(C#N),[S]C(=S)c1ccccc1,[CH2][CH](C(=O)OC1C[C@H]2CC[C@]1(C)C2(C)C),1.0,,,[*]CC([*])(C(=O)OC1C[C@H]2CC[C@]1(C)C2(C)C),,,[*]CC([*])C(=O)OC1C[C@H]2CC[C@]1(C)C2(C)C,
116,65.4,13700.0,15700.0,[C](C)(C)(C#N),[S]C(=S)c1ccccc1,[CH2][C](C)(C(=O)OC),1.0,,,[*]CC([*])(C)(C(=O)OC),,,[*]CC([*])(C)C(=O)OC,
117,79.0,29700.0,34400.0,[C](C)(C)(C#N),[S]C(=S)c1ccccc1,[CH2][C](C)(C(=O)OC),1.0,,,[*]CC([*])(C)(C(=O)OC),,,[*]CC([*])(C)C(=O)OC,
118,87.4,5400.0,6900.0,[C](C)(C)(C#N),[S]C(=S)SCc1ccccc1,[CH2][CH](c1ccccc1),1.0,,,[*]CC([*])(c1ccccc1),,,[*]CC([*])c1ccccc1,
119,68.4,3500.0,3900.0,[C](C)(C)(C#N),[S]C(=S)SCc1ccccc1,[CH2][CH](c1ccccc1),1.0,,,[*]CC([*])(c1ccccc1),,,[*]CC([*])c1ccccc1,
120,87.5,7000.0,9300.0,[C](C)(C)(C#N),[S]C(=S)SCc1ccccc1,[CH2][CH](c1ccccc1),1.0,,,[*]CC([*])(c1ccccc1),,,[*]CC([*])c1ccccc1,
121,82.2,3800.0,4800.0,[C](C)(C)(C#N),[S]C(=S)SCc1ccccc1,[CH2][CH](c1ccccc1),1.0,,,[*]CC([*])(c1ccccc1),,,[*]CC([*])c1ccccc1,
122,89.4,16300.0,21800.0,[C](C)(C)(C#N),[S]C(=S)SCc1ccccc1,[CH2][CH](c1ccccc1),1.0,,,[*]CC([*])(c1ccccc1),,,[*]CC([*])c1ccccc1,
123,86.0,6900.0,8200.0,[C](C)(C)(C#N),[S]C(=S)SCc1ccccc1,[CH2][CH](c1ccccc1),1.0,,,[*]CC([*])(c1ccccc1),,,[*]CC([*])c1ccccc1,
124,71.2,16500.0,18900.0,[C](C)(C)(C#N),[S]C(=S)c1ccccc1,[CH2][C](C)(C(=O)OC),1.0,,,[*]CC([*])(C)(C(=O)OC),,,[*]CC([*])(C)C(=O)OC,
125,104.7,18100.0,21200.0,[C](C)(C)(C#N),[S]C(=S)c1ccccc1,[CH2][C](C)(C(=O)OC),1.0,,,[*]CC([*])(C)(C(=O)OC),,,[*]CC([*])(C)C(=O)OC,
126,74.4,51200.0,88500.0,[C](C)(C)(C#N),[S]C(=S)c1ccccc1,[CH2][C](C)(C(=O)OC),1.0,,,[*]CC([*])(C)(C(=O)OC),,,[*]CC([*])(C)C(=O)OC,
127,90.3,30900.0,42100.0,[C](C)(C)(C#N),[S]C(=S)SCc1ccccc1,[CH2][CH](c1ccccc1),1.0,,,[*]CC([*])(c1ccccc1),,,[*]CC([*])c1ccccc1,
128,104.9,28400.0,37200.0,[C](C)(C)(C#N),[S]C(=S)c1ccccc1,[CH2][C](C)(C(=O)OC),1.0,,,[*]CC([*])(C)(C(=O)OC),,,[*]CC([*])(C)C(=O)OC,
129,13.6,3750.0,5587.5,C=CS(=O)(=O)CC[O],[H],[CH2]CS(=O)(=O)CC[O],1.0,,,[*]CCS(=O)(=O)CCO[*],,,[*]CCOCCS([*])(=O)=O,
130,14.5,2750.0,3850.0,C=CS(=O)(=O)CC[O],[H],[CH2]CS(=O)(=O)CC[O],1.0,,,[*]CCS(=O)(=O)CCO[*],,,[*]CCOCCS([*])(=O)=O,
131,10.3,2750.0,3877.5,C=CS(=O)(=O)CC[O],[H],[CH2]CS(=O)(=O)CC[O],1.0,,,[*]CCS(=O)(=O)CCO[*],,,[*]CCOCCS([*])(=O)=O,
132,21.7,3120.0,4368.0,C=CS(=O)(=O)CC[O],[H],[CH2]CS(=O)(=O)CC[O],1.0,,,[*]CCS(=O)(=O)CCO[*],,,[*]CCOCCS([*])(=O)=O,
133,18.6,3200.0,4992.0,C=CS(=O)(=O)CC[O],[H],[CH2]CS(=O)(=O)CC[O],1.0,,,[*]CCS(=O)(=O)CCO[*],,,[*]CCOCCS([*])(=O)=O,
134,17.1,2230.0,3478.8,C=CS(=O)(=O)CC[O],[H],[CH2]CS(=O)(=O)CC[O],1.0,,,[*]CCS(=O)(=O)CCO[*],,,[*]CCOCCS([*])(=O)=O,
135,12.6,2730.0,4477.2,C=CS(=O)(=O)CC[O],[H],[CH2]CS(=O)(=O)CC[O],1.0,,,[*]CCS(=O)(=O)CCO[*],,,[*]CCOCCS([*])(=O)=O,
136,93.0,65400.0,111180.0,[C](C)(C)(C#N),[C](C)(C)(C#N),[CH2][CH](SCCO),0.19,[CH2][CH1](c1ccccc1),0.81,[*]CC([*])(SCCO),[*]CC([*])(c1ccccc1),,[*]CC([*])SCCO,[*]CC([*])c1ccccc1
137,69.0,304800.0,487680.0,[C](C)(C)(C#N),[C](C)(C)(C#N),[CH2][CH](SCCO),0.4,[CH2][C](C)(C(=O)OC),0.6,[*]CC([*])(SCCO),[*]CC([*])(C)(C(=O)OC),,[*]CC([*])SCCO,[*]CC([*])(C)C(=O)OC
138,-17.0,408700.0,980880.0,[C](C)(C)(C#N),[C](C)(C)(C#N),[CH2][CH](SCCO),0.45,[CH2][CH1](C(=O)OCCCC),0.55,[*]CC([*])(SCCO),[*]CC([*])(C(=O)OCCCC),,[*]CC([*])SCCO,[*]CC([*])C(=O)OCCCC
139,65.0,62000.0,111600.0,[C](C)(C)(C#N),[C](C)(C)(C#N),[CH2][CH](SCCO),0.4,[CH2]CS(=O)(=O)CC[O],0.6,[*]CC([*])(SCCO),[*]CCS(=O)(=O)CCO[*],,[*]CC([*])SCCO,[*]CCOCCS([*])(=O)=O
140,21.4,146100.0,336030.0,[C](C)(C)(C#N),[C](C)(C)(C#N),[CH2][CH](SCCO),1.0,,,[*]CC([*])(SCCO),,,[*]CC([*])SCCO,
141,96.0,272700.0,545400.0,[C](C)(C)(C#N),[C](C)(C)(C#N),[CH2][CH](SCCO),0.19,[CH2][C](C)(C(=O)OC),0.81,[*]CC([*])(SCCO),[*]CC([*])(C)(C(=O)OC),,[*]CC([*])SCCO,[*]CC([*])(C)C(=O)OC
142,-23.0,10100.0,11110.0,[C](C)(C)(C#N),[S]C(=S)c1ccccc1,[CH2][CH](SCCO),0.47,[CH2][CH1](C(=O)OCCCC),0.53,[*]CC([*])(SCCO),[*]CC([*])(C(=O)OCCCC),,[*]CC([*])SCCO,[*]CC([*])C(=O)OCCCC
143,-25.0,19300.0,21230.0,[C](C)(C)(C#N),[S]C(=S)c1ccccc1,[CH2][CH](SCCO),0.44,[CH2][CH1](C(=O)OCCCC),0.56,[*]CC([*])(SCCO),[*]CC([*])(C(=O)OCCCC),,[*]CC([*])SCCO,[*]CC([*])C(=O)OCCCC
144,-19.0,38100.0,41910.0,[C](C)(C)(C#N),[S]C(=S)c1ccccc1,[CH2][CH](SCCO),0.47,[CH2][CH1](C(=O)OCCCC),0.53,[*]CC([*])(SCCO),[*]CC([*])(C(=O)OCCCC),,[*]CC([*])SCCO,[*]CC([*])C(=O)OCCCC
145,57.0,14600.0,16060.000000000002,[C](C)(C)(C#N),[S]C(=S)c1ccccc1,[CH2][CH](SCCO),0.57,[CH2][C](C)(C(=O)OC),0.43,[*]CC([*])(SCCO),[*]CC([*])(C)(C(=O)OC),,[*]CC([*])SCCO,[*]CC([*])(C)C(=O)OC
146,56.0,17000.0,18700.0,[C](C)(C)(C#N),[S]C(=S)c1ccccc1,[CH2][CH](SCCO),0.44,[CH2][C](C)(C(=O)OC),0.56,[*]CC([*])(SCCO),[*]CC([*])(C)(C(=O)OC),,[*]CC([*])SCCO,[*]CC([*])(C)C(=O)OC
147,55.0,26800.0,32160.0,[C](C)(C)(C#N),[S]C(=S)c1ccccc1,[CH2][CH](SCCO),0.44,[CH2][C](C)(C(=O)OC),0.56,[*]CC([*])(SCCO),[*]CC([*])(C)(C(=O)OC),,[*]CC([*])SCCO,[*]CC([*])(C)C(=O)OC
148,12.0,14600.0,16060.000000000002,[C](C)(C)(C#N),[S]C(=S)c1ccccc1,[CH2][CH](SCCO),1.0,,,[*]CC([*])(SCCO),,,[*]CC([*])SCCO,
149,-53.0,13100.0,14410.000000000002,[C](C)(C)(C#N),[S]C(=S)c1ccccc1,[CH2][CH](C(=O)OCCCC),1.0,,,[*]CC([*])(C(=O)OCCCC),,,[*]CC([*])C(=O)OCCCC,
150,95.0,11800.0,12980.000000000002,[C](C)(C)(C#N),[S]C(=S)c1ccccc1,[CH2][C](C)(C(=O)OC),1.0,,,[*]CC([*])(C)(C(=O)OC),,,[*]CC([*])(C)C(=O)OC,
151,102.1,29700.0,34452.0,[C](C)(C)(C#N),[S]C(=S)c1ccccc1,[CH2][C](C)(C(=O)OC),1.0,,,[*]CC([*])(C)(C(=O)OC),,,[*]CC([*])(C)C(=O)OC,
152,119.3,101400.0,190632.0,[C](C)(C)(C#N),[S]C(=S)c1ccccc1,[CH2][C](C)(C(=O)OC),1.0,,,[*]CC([*])(C)(C(=O)OC),,,[*]CC([*])(C)C(=O)OC,
153,85.5,6900.0,8211.0,[C](C)(C)(C#N),[S]C(=S)SCc1ccccc1,[CH2][CH](c1ccccc1),1.0,,,[*]CC([*])(c1ccccc1),,,[*]CC([*])c1ccccc1,
154,98.4,42300.0,63873.0,[C](C)(C)(C#N),[S]C(=S)SCc1ccccc1,[CH2][CH](c1ccccc1),1.0,,,[*]CC([*])(c1ccccc1),,,[*]CC([*])c1ccccc1,
155,95.6,16500.0,18975.0,[C](C)(C)(C#N),[S]C(=S)c1ccccc1,[CH2][C](C)(C(=O)OC),1.0,,,[*]CC([*])(C)(C(=O)OC),,,[*]CC([*])(C)C(=O)OC,
156,64.1,3500.0,3780.000000000001,[C](C)(C)(C#N),[S]C(=S)SCc1ccccc1,[CH2][CH](c1ccccc1),1.0,,,[*]CC([*])(c1ccccc1),,,[*]CC([*])c1ccccc1,
157,47.6,10200.0,12036.0,[C](C)(C)(C#N),[S]C(=S)c1ccccc1,[CH2][C](C)(C(=O)OCc1ccccc1),1.0,,,[*]CC([*])(C)(C(=O)OCc1ccccc1),,,[*]CC([*])(C)C(=O)OCc1ccccc1,
158,54.0,19000.0,22800.0,[C](C)(C)(C#N),[S]C(=S)c1ccccc1,[CH2][C](C)(C(=O)OCc1ccccc1),1.0,,,[*]CC([*])(C)(C(=O)OCc1ccccc1),,,[*]CC([*])(C)C(=O)OCc1ccccc1,
159,57.4,30000.0,37500.0,[C](C)(C)(C#N),[S]C(=S)c1ccccc1,[CH2][C](C)(C(=O)OCc1ccccc1),1.0,,,[*]CC([*])(C)(C(=O)OCc1ccccc1),,,[*]CC([*])(C)C(=O)OCc1ccccc1,
160,49.5,12500.0,22500.0,[C](C)(C)(C#N),[S]C(=S)c1ccccc1,[CH2][C](C)(C(=O)OCc1ccccc1),1.0,,,[*]CC([*])(C)(C(=O)OCc1ccccc1),,,[*]CC([*])(C)C(=O)OCc1ccccc1,
161,53.5,23600.0,32568.0,[C](C)(C)(C#N),[S]C(=S)c1ccccc1,[CH2][C](C)(C(=O)OCc1ccccc1),1.0,,,[*]CC([*])(C)(C(=O)OCc1ccccc1),,,[*]CC([*])(C)C(=O)OCc1ccccc1,
162,16.0,8400.0,10080.0,[C](C)(C)(C#N),[S]C(=S)c1ccccc1,[CH2][C](C)(C(=O)OCCCC),1.0,,,[*]CC([*])(C)(C(=O)OCCCC),,,[*]CC([*])(C)C(=O)OCCCC,
163,26.9,15700.0,17898.0,[C](C)(C)(C#N),[S]C(=S)c1ccccc1,[CH2][C](C)(C(=O)OCCCC),1.0,,,[*]CC([*])(C)(C(=O)OCCCC),,,[*]CC([*])(C)C(=O)OCCCC,
164,68.1,25500.0,32130.0,[C](C)(C)(C#N),[S]C(=S)c1ccccc1,[CH2][C](C)(C(=O)OCCCC),1.0,,,[*]CC([*])(C)(C(=O)OCCCC),,,[*]CC([*])(C)C(=O)OCCCC,
165,33.6,41100.0,52197.0,[C](C)(C)(C#N),[S]C(=S)c1ccccc1,[CH2][C](C)(C(=O)OCCCC),1.0,,,[*]CC([*])(C)(C(=O)OCCCC),,,[*]CC([*])(C)C(=O)OCCCC,
166,120.4,13600.0,16728.0,[C](C)(C)(C#N),[S]C(=S)c1ccccc1,[CH2][C](C)(C(=O)OC(C)(C)C),1.0,,,[*]CC([*])(C)(C(=O)OC(C)(C)C),,,[*]CC([*])(C)C(=O)OC(C)(C)C,
167,52.7,10800.0,12419.999999999998,[C](C)(C)(C#N),[S]C(=S)c1ccccc1,[CH2][C](C)(C(=O)OCC(C)C),1.0,,,[*]CC([*])(C)(C(=O)OCC(C)C),,,[*]CC([*])(C)C(=O)OCC(C)C,
168,59.9,13900.0,15290.000000000002,[C](C)(C)(C#N),[S]C(=S)c1ccccc1,[CH2][C](C)(C(=O)OCC(C)C),1.0,,,[*]CC([*])(C)(C(=O)OCC(C)C),,,[*]CC([*])(C)C(=O)OCC(C)C,
169,59.0,25000.0,28750.0,[C](C)(C)(C#N),[S]C(=S)c1ccccc1,[CH2][C](C)(C(=O)OCC(C)C),1.0,,,[*]CC([*])(C)(C(=O)OCC(C)C),,,[*]CC([*])(C)C(=O)OCC(C)C,
170,52.7,43500.0,51765.0,[C](C)(C)(C#N),[S]C(=S)c1ccccc1,[CH2][C](C)(C(=O)OCC(C)C),1.0,,,[*]CC([*])(C)(C(=O)OCC(C)C),,,[*]CC([*])(C)C(=O)OCC(C)C,
171,62.2,11700.0,12987.000000000002,[C](C)(C)(C#N),[S]C(=S)c1ccccc1,[CH2][C](C)(C(=O)OC1CCCCC1),1.0,,,[*]CC([*])(C)(C(=O)OC1CCCCC1),,,[*]CC([*])(C)C(=O)OC1CCCCC1,
172,23.9,20600.0,22454.0,[C](C)(C)(C#N),[S]C(=S)c1ccccc1,[CH2][C](C)(C(=O)OC1CCCCC1),1.0,,,[*]CC([*])(C)(C(=O)OC1CCCCC1),,,[*]CC([*])(C)C(=O)OC1CCCCC1,
173,59.7,14200.0,21300.0,[C](C)(C)(C#N),[S]C(=S)c1ccccc1,[CH2][C](C)(C(=O)OC1CCCCC1),1.0,,,[*]CC([*])(C)(C(=O)OC1CCCCC1),,,[*]CC([*])(C)C(=O)OC1CCCCC1,
174,70.8,34700.0,39210.99999999999,[C](C)(C)(C#N),[S]C(=S)c1ccccc1,[CH2][C](C)(C(=O)OC1CCCCC1),1.0,,,[*]CC([*])(C)(C(=O)OC1CCCCC1),,,[*]CC([*])(C)C(=O)OC1CCCCC1,
175,66.5,10000.0,11399.999999999998,[C](C)(C)(C#N),[S]C(=S)c1ccccc1,[CH2][C](C)(C(=O)OCC),1.0,,,[*]CC([*])(C)(C(=O)OCC),,,[*]CC([*])(C)C(=O)OCC,
176,61.2,15200.0,17936.0,[C](C)(C)(C#N),[S]C(=S)c1ccccc1,[CH2][C](C)(C(=O)OCC),1.0,,,[*]CC([*])(C)(C(=O)OCC),,,[*]CC([*])(C)C(=O)OCC,
177,64.9,22400.0,26656.0,[C](C)(C)(C#N),[S]C(=S)c1ccccc1,[CH2][C](C)(C(=O)OCC),1.0,,,[*]CC([*])(C)(C(=O)OCC),,,[*]CC([*])(C)C(=O)OCC,
178,64.8,23500.0,34545.0,[C](C)(C)(C#N),[S]C(=S)c1ccccc1,[CH2][C](C)(C(=O)OCC),1.0,,,[*]CC([*])(C)(C(=O)OCC),,,[*]CC([*])(C)C(=O)OCC,
179,43.2,9700.0,11155.0,[C](C)(C)(C#N),[S]C(=S)c1ccccc1,[CH2][C](C)(C(=O)OCCC),1.0,,,[*]CC([*])(C)(C(=O)OCCC),,,[*]CC([*])(C)C(=O)OCCC,
180,66.4,16400.0,18040.0,[C](C)(C)(C#N),[S]C(=S)c1ccccc1,[CH2][C](C)(C(=O)OCCC),1.0,,,[*]CC([*])(C)(C(=O)OCCC),,,[*]CC([*])(C)C(=O)OCCC,
181,57.2,28600.0,32890.0,[C](C)(C)(C#N),[S]C(=S)c1ccccc1,[CH2][C](C)(C(=O)OCCC),1.0,,,[*]CC([*])(C)(C(=O)OCCC),,,[*]CC([*])(C)C(=O)OCCC,
182,36.1,16800.0,26208.0,[C](C)(C)(C#N),[S]C(=S)c1ccccc1,[CH2][C](C)(C(=O)OCCC),1.0,,,[*]CC([*])(C)(C(=O)OCCC),,,[*]CC([*])(C)C(=O)OCCC,
183,98.6,28500.0,41040.0,[C](C)(C)(C#N),[S]C(=S)c1ccccc1,[CH2][C](C)(C(=O)OCCO),1.0,,,[*]CC([*])(C)(C(=O)OCCO),,,[*]CC([*])(C)C(=O)OCCO,
184,91.4,40800.0,51408.0,[C](C)(C)(C#N),[S]C(=S)c1ccccc1,[CH2][C](C)(C(=O)OCCO),1.0,,,[*]CC([*])(C)(C(=O)OCCO),,,[*]CC([*])(C)C(=O)OCCO,
185,75.3,30600.0,44064.0,[C](C)(C)(C#N),[S]C(=S)c1ccccc1,[CH2][C](C)(C(=O)OCCO),1.0,,,[*]CC([*])(C)(C(=O)OCCO),,,[*]CC([*])(C)C(=O)OCCO,
186,111.8,83300.0,115787.0,[C](C)(C)(C#N),[S]C(=S)c1ccccc1,[CH2][C](C)(C(=O)OCCO),1.0,,,[*]CC([*])(C)(C(=O)OCCO),,,[*]CC([*])(C)C(=O)OCCO,
187,104.5,26800.0,30820.0,[C](C)(C)(C#N),[S]C(=S)c1ccccc1,[CH2][C](C)(C(=O)OC1CC2CCC1(C)C2(C)C),1.0,,,[*]CC([*])(C)(C(=O)OC1CC2CCC1(C)C2(C)C),,,[*]CC([*])(C)C(=O)OC1CC2CCC1(C)C2(C)C,
188,184.2,7400.0,8658.0,[C](C)(C)(C#N),[S]C(=S)c1ccccc1,[CH2][C](C)(C(=O)OC1CC2CCC1(C)C2(C)C),1.0,,,[*]CC([*])(C)(C(=O)OC1CC2CCC1(C)C2(C)C),,,[*]CC([*])(C)C(=O)OC1CC2CCC1(C)C2(C)C,
189,96.2,10800.0,14256.0,[C](C)(C)(C#N),[S]C(=S)c1ccccc1,[CH2][C](C)(C(=O)Oc1ccccc1),1.0,,,[*]CC([*])(C)(C(=O)Oc1ccccc1),,,[*]CC([*])(C)C(=O)Oc1ccccc1,
190,100.3,18600.0,24552.0,[C](C)(C)(C#N),[S]C(=S)c1ccccc1,[CH2][C](C)(C(=O)Oc1ccccc1),1.0,,,[*]CC([*])(C)(C(=O)Oc1ccccc1),,,[*]CC([*])(C)C(=O)Oc1ccccc1,
191,102.6,27800.0,38086.0,[C](C)(C)(C#N),[S]C(=S)c1ccccc1,[CH2][C](C)(C(=O)Oc1ccccc1),1.0,,,[*]CC([*])(C)(C(=O)Oc1ccccc1),,,[*]CC([*])(C)C(=O)Oc1ccccc1,
192,106.9,19200.0,29376.0,[C](C)(C)(C#N),[S]C(=S)c1ccccc1,[CH2][C](C)(C(=O)Oc1ccccc1),1.0,,,[*]CC([*])(C)(C(=O)Oc1ccccc1),,,[*]CC([*])(C)C(=O)Oc1ccccc1,
193,123.9,7200.0,8064.000000000001,[C](C)(C)(C#N),[S]C(=S)SCc1ccccc1,[CH2][CH](c1ccc(Br)cc1),1.0,,,[*]CC([*])(c1ccc(Br)cc1),,,[*]CC([*])c1ccc(Br)cc1,
194,131.6,12000.0,13679.999999999998,[C](C)(C)(C#N),[S]C(=S)SCc1ccccc1,[CH2][CH](c1ccc(Br)cc1),1.0,,,[*]CC([*])(c1ccc(Br)cc1),,,[*]CC([*])c1ccc(Br)cc1,
195,125.2,19000.0,20710.0,[C](C)(C)(C#N),[S]C(=S)SCc1ccccc1,[CH2][CH](c1ccc(Br)cc1),1.0,,,[*]CC([*])(c1ccc(Br)cc1),,,[*]CC([*])c1ccc(Br)cc1,
196,139.1,23300.0,26329.0,[C](C)(C)(C#N),[S]C(=S)SCc1ccccc1,[CH2][CH](c1ccc(Br)cc1),1.0,,,[*]CC([*])(c1ccc(Br)cc1),,,[*]CC([*])c1ccc(Br)cc1,
197,91.4,8700.0,9918.0,[C](C)(C)(C#N),[S]C(=S)SCc1ccccc1,[CH2][CH](c1ccccc1),1.0,,,[*]CC([*])(c1ccccc1),,,[*]CC([*])c1ccccc1,
198,82.0,4300.0,4601.0,[C](C)(C)(C#N),[S]C(=S)SCc1ccccc1,[CH2][CH](c1ccc(C)cc1),1.0,,,[*]CC([*])(c1ccc(C)cc1),,,[*]CC([*])c1ccc(C)cc1,
199,94.2,4300.0,4601.0,[C](C)(C)(C#N),[S]C(=S)SCc1ccccc1,[CH2][CH](c1ccc(C)cc1),1.0,,,[*]CC([*])(c1ccc(C)cc1),,,[*]CC([*])c1ccc(C)cc1,
200,99.7,6900.0,7107.0,[C](C)(C)(C#N),[S]C(=S)SCc1ccccc1,[CH2][CH](c1ccc(C)cc1),1.0,,,[*]CC([*])(c1ccc(C)cc1),,,[*]CC([*])c1ccc(C)cc1,
201,92.4,5100.0,6936.000000000001,[C](C)(C)(C#N),[S]C(=S)SCc1ccccc1,[CH2][CH](c1ccc(C)cc1),1.0,,,[*]CC([*])(c1ccc(C)cc1),,,[*]CC([*])c1ccc(C)cc1,
202,115.2,3100.0,3720.0,[C](C)(C)(C#N),[S]C(=S)SCc1ccccc1,[CH2][CH](c1ccc(C(C)(C)(C))cc1),1.0,,,[*]CC([*])(c1ccc(C(C)(C)(C))cc1),,,[*]CC([*])c1ccc(C(C)(C)C)cc1,
203,112.1,2700.0,3861.0,[C](C)(C)(C#N),[S]C(=S)SCc1ccccc1,[CH2][CH](c1ccc(C(C)(C)(C))cc1),1.0,,,[*]CC([*])(c1ccc(C(C)(C)(C))cc1),,,[*]CC([*])c1ccc(C(C)(C)C)cc1,
204,118.9,3600.0,5724.0,[C](C)(C)(C#N),[S]C(=S)SCc1ccccc1,[CH2][CH](c1ccc(C(C)(C)(C))cc1),1.0,,,[*]CC([*])(c1ccc(C(C)(C)(C))cc1),,,[*]CC([*])c1ccc(C(C)(C)C)cc1,