,Tg,Mn,Mw,SMILES_start,SMILES_end,SMILES_rep_u1,molpercent_rep_u1,SMILES_rep_u2,molpercent_rep_u2,PSMILES_rep_u1,PSMILES_rep_u2,name,canonicalized_PSMILES_rep_u1,canonicalized_PSMILES_rep_u2
205,106.1,2200.0,3850.0,[C](C)(C)(C#N),[S]C(=S)SCc1ccccc1,[CH2][CH](c1ccc(C(C)(C)(C))cc1),1.0,,,[*]CC([*])(c1ccc(C(C)(C)(C))cc1),,,[*]CC([*])c1ccc(C(C)(C)C)cc1,
206,103.9,2700.0,3861.0,[C](C)(C)(C#N),[S]C(=S)SCc1ccccc1,[CH2][CH](c1ccc([Cl])cc1),1.0,,,[*]CC([*])(c1ccc([Cl])cc1),,,[*]CC([*])c1ccc(Cl)cc1,
207,117.2,7100.0,8022.999999999999,[C](C)(C)(C#N),[S]C(=S)SCc1ccccc1,[CH2][CH](c1ccc([Cl])cc1),1.0,,,[*]CC([*])(c1ccc([Cl])cc1),,,[*]CC([*])c1ccc(Cl)cc1,
208,113.4,5700.0,6554.999999999999,[C](C)(C)(C#N),[S]C(=S)SCc1ccccc1,[CH2][CH](c1ccc([Cl])cc1),1.0,,,[*]CC([*])(c1ccc([Cl])cc1),,,[*]CC([*])c1ccc(Cl)cc1,
209,121.5,15900.0,17808.0,[C](C)(C)(C#N),[S]C(=S)SCc1ccccc1,[CH2][CH](c1ccc([Cl])cc1),1.0,,,[*]CC([*])(c1ccc([Cl])cc1),,,[*]CC([*])c1ccc(Cl)cc1,
210,60.0,6600.0,9108.0,[C](C)(C)(C#N),[S]C(=S)c1ccccc1,[CH2][CH](C(=O)OC1CC2CCC1(C)C2(C)C),1.0,,,[*]CC([*])(C(=O)OC1CC2CCC1(C)C2(C)C),,,[*]CC([*])C(=O)OC1CC2CCC1(C)C2(C)C,
211,58.3,9500.0,16720.0,[C](C)(C)(C#N),[S]C(=S)c1ccccc1,[CH2][CH](C(=O)OC1CC2CCC1(C)C2(C)C),1.0,,,[*]CC([*])(C(=O)OC1CC2CCC1(C)C2(C)C),,,[*]CC([*])C(=O)OC1CC2CCC1(C)C2(C)C,
212,73.5,12300.0,25830.0,[C](C)(C)(C#N),[S]C(=S)c1ccccc1,[CH2][CH](C(=O)OC1CC2CCC1(C)C2(C)C),1.0,,,[*]CC([*])(C(=O)OC1CC2CCC1(C)C2(C)C),,,[*]CC([*])C(=O)OC1CC2CCC1(C)C2(C)C,
213,98.2,10400.0,23192.0,[C](C)(C)(C#N),[S]C(=S)c1ccccc1,[CH2][CH](C(=O)OC1CC2CCC1(C)C2(C)C),1.0,,,[*]CC([*])(C(=O)OC1CC2CCC1(C)C2(C)C),,,[*]CC([*])C(=O)OC1CC2CCC1(C)C2(C)C,
214,24.2,5800.0,7540.0,[C](C)(C)(C#N),[S]C(=S)c1ccccc1,[CH2][CH](C(=O)OC1CCCCC1),1.0,,,[*]CC([*])(C(=O)OC1CCCCC1),,,[*]CC([*])C(=O)OC1CCCCC1,
215,27.6,15500.0,19530.0,[C](C)(C)(C#N),[S]C(=S)c1ccccc1,[CH2][CH](C(=O)OC1CCCCC1),1.0,,,[*]CC([*])(C(=O)OC1CCCCC1),,,[*]CC([*])C(=O)OC1CCCCC1,
216,26.8,22500.0,35325.0,[C](C)(C)(C#N),[S]C(=S)c1ccccc1,[CH2][CH](C(=O)OC1CCCCC1),1.0,,,[*]CC([*])(C(=O)OC1CCCCC1),,,[*]CC([*])C(=O)OC1CCCCC1,
217,26.2,22400.0,36064.0,[C](C)(C)(C#N),[S]C(=S)c1ccccc1,[CH2][CH](C(=O)OC1CCCCC1),1.0,,,[*]CC([*])(C(=O)OC1CCCCC1),,,[*]CC([*])C(=O)OC1CCCCC1,
218,122.1,7200.0,8352.0,[C](C)(C)(C#N),[S]C(=S)c1ccccc1,[CH2][CH](C(=O)OC(C)(C)C),1.0,,,[*]CC([*])(C(=O)OC(C)(C)C),,,[*]CC([*])C(=O)OC(C)(C)C,
219,124.5,12000.0,15000.0,[C](C)(C)(C#N),[S]C(=S)c1ccccc1,[CH2][CH](C(=O)OC(C)(C)C),1.0,,,[*]CC([*])(C(=O)OC(C)(C)C),,,[*]CC([*])C(=O)OC(C)(C)C,
220,65.0,23100.0,28644.0,[C](C)(C)(C#N),[S]C(=S)c1ccccc1,[CH2][CH](C(=O)OC(C)(C)C),1.0,,,[*]CC([*])(C(=O)OC(C)(C)C),,,[*]CC([*])C(=O)OC(C)(C)C,
221,60.7,14900.0,26224.0,[C](C)(C)(C#N),[S]C(=S)c1ccccc1,[CH2][CH](C(=O)OC(C)(C)C),1.0,,,[*]CC([*])(C(=O)OC(C)(C)C),,,[*]CC([*])C(=O)OC(C)(C)C,
222,108.6,13900.0,17653.0,[C](C)(C)(C#N),[S]C(=S)c1ccccc1,[CH2][C](C)(C(=O)OC),1.0,,,[*]CC([*])(C)(C(=O)OC),,,[*]CC([*])(C)C(=O)OC,
223,108.7,11700.0,13923.0,[C](C)(C)(C#N),[S]C(=S)c1ccccc1,[CH2][C](C)(C(=O)OC),1.0,,,[*]CC([*])(C)(C(=O)OC),,,[*]CC([*])(C)C(=O)OC,
224,110.2,14500.0,17255.0,[C](C)(C)(C#N),[S]C(=S)c1ccccc1,[CH2][C](C)(C(=O)OC),1.0,,,[*]CC([*])(C)(C(=O)OC),,,[*]CC([*])(C)C(=O)OC,
225,102.4,32700.0,46434.0,[C](C)(C)(C#N),[S]C(=S)SCc1ccccc1,[CH2][CH](c1ccccc1),1.0,,,[*]CC([*])(c1ccccc1),,,[*]CC([*])c1ccccc1,
226,100.2,22100.0,30719.0,[C](C)(C)(C#N),[S]C(=S)SCc1ccccc1,[CH2][CH](c1ccccc1),1.0,,,[*]CC([*])(c1ccccc1),,,[*]CC([*])c1ccccc1,
227,100.9,29600.0,40848.0,[C](C)(C)(C#N),[S]C(=S)SCc1ccccc1,[CH2][CH](c1ccccc1),1.0,,,[*]CC([*])(c1ccccc1),,,[*]CC([*])c1ccccc1,
228,99.6,20000.0,26400.0,[C](C)(C)(C#N),[S]C(=S)SCc1ccccc1,[CH2][CH](c1ccccc1),1.0,,,[*]CC([*])(c1ccccc1),,,[*]CC([*])c1ccccc1,
229,90.5,8300.0,10956.0,[C](C)(C)(C#N),[S]C(=S)SCc1ccccc1,[CH2][CH](c1ccccc1),1.0,,,[*]CC([*])(c1ccccc1),,,[*]CC([*])c1ccccc1,
230,98.8,21500.0,25000.0,[C](C)(C)(C#N),[S]C(=S)SCc1ccccc1,[CH2][C](C)(C(=O)OC),0.18,[CH2][CH](c1ccccc1),0.82,[*]CC([*])(C)(C(=O)OC),[*]CC([*])(c1ccccc1),,[*]CC([*])(C)C(=O)OC,[*]CC([*])c1ccccc1
231,100.5,21500.0,25000.0,[C](C)(C)(C#N),[S]C(=S)SCc1ccccc1,[CH2][C](C)(C(=O)OC),0.18,[CH2][CH](c1ccccc1),0.82,[*]CC([*])(C)(C(=O)OC),[*]CC([*])(c1ccccc1),,[*]CC([*])(C)C(=O)OC,[*]CC([*])c1ccccc1
232,98.4,25500.0,29600.0,[C](C)(C)(C#N),[S]C(=S)SCc1ccccc1,[CH2][C](C)(C(=O)OC),0.34,[CH2][CH](c1ccccc1),0.66,[*]CC([*])(C)(C(=O)OC),[*]CC([*])(c1ccccc1),,[*]CC([*])(C)C(=O)OC,[*]CC([*])c1ccccc1
233,100.2,25500.0,29600.0,[C](C)(C)(C#N),[S]C(=S)SCc1ccccc1,[CH2][C](C)(C(=O)OC),0.34,[CH2][CH](c1ccccc1),0.66,[*]CC([*])(C)(C(=O)OC),[*]CC([*])(c1ccccc1),,[*]CC([*])(C)C(=O)OC,[*]CC([*])c1ccccc1
234,101.0,31500.0,37200.0,[C](C)(C)(C#N),[S]C(=S)SCc1ccccc1,[CH2][C](C)(C(=O)OC),0.51,[CH2][CH](c1ccccc1),0.49,[*]CC([*])(C)(C(=O)OC),[*]CC([*])(c1ccccc1),,[*]CC([*])(C)C(=O)OC,[*]CC([*])c1ccccc1
235,103.5,31500.0,37200.0,[C](C)(C)(C#N),[S]C(=S)SCc1ccccc1,[CH2][C](C)(C(=O)OC),0.51,[CH2][CH](c1ccccc1),0.49,[*]CC([*])(C)(C(=O)OC),[*]CC([*])(c1ccccc1),,[*]CC([*])(C)C(=O)OC,[*]CC([*])c1ccccc1
236,111.2,48100.0,56700.0,[C](C)(C)(C#N),[S]C(=S)SCc1ccccc1,[CH2][C](C)(C(=O)OC),0.7,[CH2][CH](c1ccccc1),0.3,[*]CC([*])(C)(C(=O)OC),[*]CC([*])(c1ccccc1),,[*]CC([*])(C)C(=O)OC,[*]CC([*])c1ccccc1
237,114.5,48100.0,56700.0,[C](C)(C)(C#N),[S]C(=S)SCc1ccccc1,[CH2][C](C)(C(=O)OC),0.7,[CH2][CH](c1ccccc1),0.3,[*]CC([*])(C)(C(=O)OC),[*]CC([*])(c1ccccc1),,[*]CC([*])(C)C(=O)OC,[*]CC([*])c1ccccc1
238,81.9,48700.0,58300.0,[C](C)(C)(C#N),[S]C(=S)SCc1ccccc1,[CH2][C](C)(C(=O)OC),0.85,[CH2][CH](c1ccccc1),0.15,[*]CC([*])(C)(C(=O)OC),[*]CC([*])(c1ccccc1),,[*]CC([*])(C)C(=O)OC,[*]CC([*])c1ccccc1
239,93.2,28400.0,34100.0,[C](C)(C)(C#N),[S]C(=S)SCc1ccccc1,[CH2][C](C)(C(=O)OC),0.18,[CH2][CH](c1ccccc1),0.82,[*]CC([*])(C)(C(=O)OC),[*]CC([*])(c1ccccc1),,[*]CC([*])(C)C(=O)OC,[*]CC([*])c1ccccc1
240,93.5,28400.0,34100.0,[C](C)(C)(C#N),[S]C(=S)SCc1ccccc1,[CH2][C](C)(C(=O)OC),0.18,[CH2][CH](c1ccccc1),0.82,[*]CC([*])(C)(C(=O)OC),[*]CC([*])(c1ccccc1),,[*]CC([*])(C)C(=O)OC,[*]CC([*])c1ccccc1
241,99.3,34800.0,41700.0,[C](C)(C)(C#N),[S]C(=S)SCc1ccccc1,[CH2][C](C)(C(=O)OC),0.34,[CH2][CH](c1ccccc1),0.66,[*]CC([*])(C)(C(=O)OC),[*]CC([*])(c1ccccc1),,[*]CC([*])(C)C(=O)OC,[*]CC([*])c1ccccc1
242,97.3,34800.0,41700.0,[C](C)(C)(C#N),[S]C(=S)SCc1ccccc1,[CH2][C](C)(C(=O)OC),0.34,[CH2][CH](c1ccccc1),0.66,[*]CC([*])(C)(C(=O)OC),[*]CC([*])(c1ccccc1),,[*]CC([*])(C)C(=O)OC,[*]CC([*])c1ccccc1
243,99.4,39200.0,48300.0,[C](C)(C)(C#N),[S]C(=S)SCc1ccccc1,[CH2][C](C)(C(=O)OC),0.53,[CH2][CH](c1ccccc1),0.47,[*]CC([*])(C)(C(=O)OC),[*]CC([*])(c1ccccc1),,[*]CC([*])(C)C(=O)OC,[*]CC([*])c1ccccc1
244,93.9,39200.0,48300.0,[C](C)(C)(C#N),[S]C(=S)SCc1ccccc1,[CH2][C](C)(C(=O)OC),0.53,[CH2][CH](c1ccccc1),0.47,[*]CC([*])(C)(C(=O)OC),[*]CC([*])(c1ccccc1),,[*]CC([*])(C)C(=O)OC,[*]CC([*])c1ccccc1
245,106.8,63800.0,73000.0,[C](C)(C)(C#N),[S]C(=S)SCc1ccccc1,[CH2][C](C)(C(=O)OC),0.7,[CH2][CH](c1ccccc1),0.3,[*]CC([*])(C)(C(=O)OC),[*]CC([*])(c1ccccc1),,[*]CC([*])(C)C(=O)OC,[*]CC([*])c1ccccc1
246,101.9,63800.0,73000.0,[C](C)(C)(C#N),[S]C(=S)SCc1ccccc1,[CH2][C](C)(C(=O)OC),0.7,[CH2][CH](c1ccccc1),0.3,[*]CC([*])(C)(C(=O)OC),[*]CC([*])(c1ccccc1),,[*]CC([*])(C)C(=O)OC,[*]CC([*])c1ccccc1
247,85.3,45000.0,58500.0,[C](C)(C)(C#N),[S]C(=S)SCc1ccccc1,[CH2][C](C)(C(=O)OC),0.85,[CH2][CH](c1ccccc1),0.15,[*]CC([*])(C)(C(=O)OC),[*]CC([*])(c1ccccc1),,[*]CC([*])(C)C(=O)OC,[*]CC([*])c1ccccc1
248,81.3,45000.0,58500.0,[C](C)(C)(C#N),[S]C(=S)SCc1ccccc1,[CH2][C](C)(C(=O)OC),0.85,[CH2][CH](c1ccccc1),0.15,[*]CC([*])(C)(C(=O)OC),[*]CC([*])(c1ccccc1),,[*]CC([*])(C)C(=O)OC,[*]CC([*])c1ccccc1
249,102.0,31500.0,39000.0,[C](C)(C)(C#N),[S]C(=S)SCc1ccccc1,[CH2][C](C)(C(=O)OC),0.19,[CH2][CH](c1ccccc1),0.81,[*]CC([*])(C)(C(=O)OC),[*]CC([*])(c1ccccc1),,[*]CC([*])(C)C(=O)OC,[*]CC([*])c1ccccc1
250,104.6,31500.0,39000.0,[C](C)(C)(C#N),[S]C(=S)SCc1ccccc1,[CH2][C](C)(C(=O)OC),0.19,[CH2][CH](c1ccccc1),0.81,[*]CC([*])(C)(C(=O)OC),[*]CC([*])(c1ccccc1),,[*]CC([*])(C)C(=O)OC,[*]CC([*])c1ccccc1
251,102.2,38500.0,48000.0,[C](C)(C)(C#N),[S]C(=S)SCc1ccccc1,[CH2][C](C)(C(=O)OC),0.33,[CH2][CH](c1ccccc1),0.67,[*]CC([*])(C)(C(=O)OC),[*]CC([*])(c1ccccc1),,[*]CC([*])(C)C(=O)OC,[*]CC([*])c1ccccc1
252,103.2,38500.0,48000.0,[C](C)(C)(C#N),[S]C(=S)SCc1ccccc1,[CH2][C](C)(C(=O)OC),0.33,[CH2][CH](c1ccccc1),0.67,[*]CC([*])(C)(C(=O)OC),[*]CC([*])(c1ccccc1),,[*]CC([*])(C)C(=O)OC,[*]CC([*])c1ccccc1
253,105.1,44000.0,55500.0,[C](C)(C)(C#N),[S]C(=S)SCc1ccccc1,[CH2][C](C)(C(=O)OC),0.53,[CH2][CH](c1ccccc1),0.47,[*]CC([*])(C)(C(=O)OC),[*]CC([*])(c1ccccc1),,[*]CC([*])(C)C(=O)OC,[*]CC([*])c1ccccc1
254,101.8,44000.0,55500.0,[C](C)(C)(C#N),[S]C(=S)SCc1ccccc1,[CH2][C](C)(C(=O)OC),0.53,[CH2][CH](c1ccccc1),0.47,[*]CC([*])(C)(C(=O)OC),[*]CC([*])(c1ccccc1),,[*]CC([*])(C)C(=O)OC,[*]CC([*])c1ccccc1
255,112.0,55000.0,68800.0,[C](C)(C)(C#N),[S]C(=S)SCc1ccccc1,[CH2][C](C)(C(=O)OC),0.69,[CH2][CH](c1ccccc1),0.31,[*]CC([*])(C)(C(=O)OC),[*]CC([*])(c1ccccc1),,[*]CC([*])(C)C(=O)OC,[*]CC([*])c1ccccc1
256,113.5,55000.0,68800.0,[C](C)(C)(C#N),[S]C(=S)SCc1ccccc1,[CH2][C](C)(C(=O)OC),0.69,[CH2][CH](c1ccccc1),0.31,[*]CC([*])(C)(C(=O)OC),[*]CC([*])(c1ccccc1),,[*]CC([*])(C)C(=O)OC,[*]CC([*])c1ccccc1
257,100.7,51500.0,65900.0,[C](C)(C)(C#N),[S]C(=S)SCc1ccccc1,[CH2][C](C)(C(=O)OC),0.84,[CH2][CH](c1ccccc1),0.16,[*]CC([*])(C)(C(=O)OC),[*]CC([*])(c1ccccc1),,[*]CC([*])(C)C(=O)OC,[*]CC([*])c1ccccc1
258,95.8,51500.0,65900.0,[C](C)(C)(C#N),[S]C(=S)SCc1ccccc1,[CH2][C](C)(C(=O)OC),0.84,[CH2][CH](c1ccccc1),0.16,[*]CC([*])(C)(C(=O)OC),[*]CC([*])(c1ccccc1),,[*]CC([*])(C)C(=O)OC,[*]CC([*])c1ccccc1
259,94.2,26700.0,32100.0,[C](C)(C)(C#N),[S]C(=S)SCc1ccccc1,[CH2][C](C)(C(=O)OC),0.12,[CH2][CH](c1ccccc1),0.88,[*]CC([*])(C)(C(=O)OC),[*]CC([*])(c1ccccc1),,[*]CC([*])(C)C(=O)OC,[*]CC([*])c1ccccc1
260,94.2,26700.0,32100.0,[C](C)(C)(C#N),[S]C(=S)SCc1ccccc1,[CH2][C](C)(C(=O)OC),0.12,[CH2][CH](c1ccccc1),0.88,[*]CC([*])(C)(C(=O)OC),[*]CC([*])(c1ccccc1),,[*]CC([*])(C)C(=O)OC,[*]CC([*])c1ccccc1
261,105.4,38600.0,48100.0,[C](C)(C)(C#N),[S]C(=S)SCc1ccccc1,[CH2][C](C)(C(=O)OC),0.49,[CH2][CH](c1ccccc1),0.51,[*]CC([*])(C)(C(=O)OC),[*]CC([*])(c1ccccc1),,[*]CC([*])(C)C(=O)OC,[*]CC([*])c1ccccc1
262,105.3,38600.0,48100.0,[C](C)(C)(C#N),[S]C(=S)SCc1ccccc1,[CH2][C](C)(C(=O)OC),0.49,[CH2][CH](c1ccccc1),0.51,[*]CC([*])(C)(C(=O)OC),[*]CC([*])(c1ccccc1),,[*]CC([*])(C)C(=O)OC,[*]CC([*])c1ccccc1
263,115.1,67000.0,78400.0,[C](C)(C)(C#N),[S]C(=S)SCc1ccccc1,[CH2][C](C)(C(=O)OC),0.77,[CH2][CH](c1ccccc1),0.23,[*]CC([*])(C)(C(=O)OC),[*]CC([*])(c1ccccc1),,[*]CC([*])(C)C(=O)OC,[*]CC([*])c1ccccc1
264,115.0,67000.0,78400.0,[C](C)(C)(C#N),[S]C(=S)SCc1ccccc1,[CH2][C](C)(C(=O)OC),0.77,[CH2][CH](c1ccccc1),0.23,[*]CC([*])(C)(C(=O)OC),[*]CC([*])(c1ccccc1),,[*]CC([*])(C)C(=O)OC,[*]CC([*])c1ccccc1
265,102.8,32900.0,43100.0,[C](C)(C)(C#N),[S]C(=S)SCc1ccccc1,[CH2][C](C)(C(=O)OC),0.13,[CH2][CH](c1ccccc1),0.87,[*]CC([*])(C)(C(=O)OC),[*]CC([*])(c1ccccc1),,[*]CC([*])(C)C(=O)OC,[*]CC([*])c1ccccc1
266,104.5,32900.0,43100.0,[C](C)(C)(C#N),[S]C(=S)SCc1ccccc1,[CH2][C](C)(C(=O)OC),0.13,[CH2][CH](c1ccccc1),0.87,[*]CC([*])(C)(C(=O)OC),[*]CC([*])(c1ccccc1),,[*]CC([*])(C)C(=O)OC,[*]CC([*])c1ccccc1
267,92.0,39900.0,51000.0,[C](C)(C)(C#N),[S]C(=S)SCc1ccccc1,[CH2][C](C)(C(=O)OC),0.26,[CH2][CH](c1ccccc1),0.74,[*]CC([*])(C)(C(=O)OC),[*]CC([*])(c1ccccc1),,[*]CC([*])(C)C(=O)OC,[*]CC([*])c1ccccc1
268,92.7,39900.0,51000.0,[C](C)(C)(C#N),[S]C(=S)SCc1ccccc1,[CH2][C](C)(C(=O)OC),0.26,[CH2][CH](c1ccccc1),0.74,[*]CC([*])(C)(C(=O)OC),[*]CC([*])(c1ccccc1),,[*]CC([*])(C)C(=O)OC,[*]CC([*])c1ccccc1
269,104.7,52900.0,67900.0,[C](C)(C)(C#N),[S]C(=S)SCc1ccccc1,[CH2][C](C)(C(=O)OC),0.5,[CH2][CH](c1ccccc1),0.5,[*]CC([*])(C)(C(=O)OC),[*]CC([*])(c1ccccc1),,[*]CC([*])(C)C(=O)OC,[*]CC([*])c1ccccc1
270,104.8,52900.0,67900.0,[C](C)(C)(C#N),[S]C(=S)SCc1ccccc1,[CH2][C](C)(C(=O)OC),0.5,[CH2][CH](c1ccccc1),0.5,[*]CC([*])(C)(C(=O)OC),[*]CC([*])(c1ccccc1),,[*]CC([*])(C)C(=O)OC,[*]CC([*])c1ccccc1
271,116.6,72700.0,86200.0,[C](C)(C)(C#N),[S]C(=S)SCc1ccccc1,[CH2][C](C)(C(=O)OC),0.76,[CH2][CH](c1ccccc1),0.24,[*]CC([*])(C)(C(=O)OC),[*]CC([*])(c1ccccc1),,[*]CC([*])(C)C(=O)OC,[*]CC([*])c1ccccc1
272,118.5,72700.0,86200.0,[C](C)(C)(C#N),[S]C(=S)SCc1ccccc1,[CH2][C](C)(C(=O)OC),0.76,[CH2][CH](c1ccccc1),0.24,[*]CC([*])(C)(C(=O)OC),[*]CC([*])(c1ccccc1),,[*]CC([*])(C)C(=O)OC,[*]CC([*])c1ccccc1
273,99.0,75700.0,90800.0,[C](C)(C)(C#N),[S]C(=S)SCc1ccccc1,[CH2][C](C)(C(=O)OC),0.89,[CH2][CH](c1ccccc1),0.11,[*]CC([*])(C)(C(=O)OC),[*]CC([*])(c1ccccc1),,[*]CC([*])(C)C(=O)OC,[*]CC([*])c1ccccc1
274,110.0,75700.0,90800.0,[C](C)(C)(C#N),[S]C(=S)SCc1ccccc1,[CH2][C](C)(C(=O)OC),0.89,[CH2][CH](c1ccccc1),0.11,[*]CC([*])(C)(C(=O)OC),[*]CC([*])(c1ccccc1),,[*]CC([*])(C)C(=O)OC,[*]CC([*])c1ccccc1
275,97.4,75700.0,90800.0,[C](C)(C)(C#N),[S]C(=S)SCc1ccccc1,[CH2][C](C)(C(=O)OC),0.09,[CH2][CH](c1ccccc1),0.91,[*]CC([*])(C)(C(=O)OC),[*]CC([*])(c1ccccc1),,[*]CC([*])(C)C(=O)OC,[*]CC([*])c1ccccc1
276,98.5,75700.0,90800.0,[C](C)(C)(C#N),[S]C(=S)SCc1ccccc1,[CH2][C](C)(C(=O)OC),0.09,[CH2][CH](c1ccccc1),0.91,[*]CC([*])(C)(C(=O)OC),[*]CC([*])(c1ccccc1),,[*]CC([*])(C)C(=O)OC,[*]CC([*])c1ccccc1
277,101.0,29300.0,33600.0,[C](C)(C)(C#N),[S]C(=S)SCc1ccccc1,[CH2][C](C)(C(=O)OC),0.09,[CH2][CH](c1ccccc1),0.91,[*]CC([*])(C)(C(=O)OC),[*]CC([*])(c1ccccc1),,[*]CC([*])(C)C(=O)OC,[*]CC([*])c1ccccc1
278,97.0,29300.0,33600.0,[C](C)(C)(C#N),[S]C(=S)SCc1ccccc1,[CH2][C](C)(C(=O)OC),0.09,[CH2][CH](c1ccccc1),0.91,[*]CC([*])(C)(C(=O)OC),[*]CC([*])(c1ccccc1),,[*]CC([*])(C)C(=O)OC,[*]CC([*])c1ccccc1
279,99.4,29300.0,33600.0,[C](C)(C)(C#N),[S]C(=S)SCc1ccccc1,[CH2][C](C)(C(=O)OC),0.23,[CH2][CH](c1ccccc1),0.77,[*]CC([*])(C)(C(=O)OC),[*]CC([*])(c1ccccc1),,[*]CC([*])(C)C(=O)OC,[*]CC([*])c1ccccc1
280,101.4,29300.0,33600.0,[C](C)(C)(C#N),[S]C(=S)SCc1ccccc1,[CH2][C](C)(C(=O)OC),0.23,[CH2][CH](c1ccccc1),0.77,[*]CC([*])(C)(C(=O)OC),[*]CC([*])(c1ccccc1),,[*]CC([*])(C)C(=O)OC,[*]CC([*])c1ccccc1
281,99.8,35000.0,38400.0,[C](C)(C)(C#N),[S]C(=S)SCc1ccccc1,[CH2][C](C)(C(=O)OC),0.23,[CH2][CH](c1ccccc1),0.77,[*]CC([*])(C)(C(=O)OC),[*]CC([*])(c1ccccc1),,[*]CC([*])(C)C(=O)OC,[*]CC([*])c1ccccc1
282,102.1,35000.0,38400.0,[C](C)(C)(C#N),[S]C(=S)SCc1ccccc1,[CH2][C](C)(C(=O)OC),0.23,[CH2][CH](c1ccccc1),0.77,[*]CC([*])(C)(C(=O)OC),[*]CC([*])(c1ccccc1),,[*]CC([*])(C)C(=O)OC,[*]CC([*])c1ccccc1
283,101.4,35000.0,38400.0,[C](C)(C)(C#N),[S]C(=S)SCc1ccccc1,[CH2][C](C)(C(=O)OC),0.48,[CH2][CH](c1ccccc1),0.52,[*]CC([*])(C)(C(=O)OC),[*]CC([*])(c1ccccc1),,[*]CC([*])(C)C(=O)OC,[*]CC([*])c1ccccc1
284,102.1,35000.0,38400.0,[C](C)(C)(C#N),[S]C(=S)SCc1ccccc1,[CH2][C](C)(C(=O)OC),0.48,[CH2][CH](c1ccccc1),0.52,[*]CC([*])(C)(C(=O)OC),[*]CC([*])(c1ccccc1),,[*]CC([*])(C)C(=O)OC,[*]CC([*])c1ccccc1
285,101.1,38600.0,44200.0,[C](C)(C)(C#N),[S]C(=S)SCc1ccccc1,[CH2][C](C)(C(=O)OC),0.48,[CH2][CH](c1ccccc1),0.52,[*]CC([*])(C)(C(=O)OC),[*]CC([*])(c1ccccc1),,[*]CC([*])(C)C(=O)OC,[*]CC([*])c1ccccc1
286,102.2,38600.0,44200.0,[C](C)(C)(C#N),[S]C(=S)SCc1ccccc1,[CH2][C](C)(C(=O)OC),0.48,[CH2][CH](c1ccccc1),0.52,[*]CC([*])(C)(C(=O)OC),[*]CC([*])(c1ccccc1),,[*]CC([*])(C)C(=O)OC,[*]CC([*])c1ccccc1
287,105.5,53800.0,60200.0,[C](C)(C)(C#N),[S]C(=S)SCc1ccccc1,[CH2][C](C)(C(=O)OC),0.75,[CH2][CH](c1ccccc1),0.25,[*]CC([*])(C)(C(=O)OC),[*]CC([*])(c1ccccc1),,[*]CC([*])(C)C(=O)OC,[*]CC([*])c1ccccc1
288,85.2,53800.0,60200.0,[C](C)(C)(C#N),[S]C(=S)SCc1ccccc1,[CH2][C](C)(C(=O)OC),0.75,[CH2][CH](c1ccccc1),0.25,[*]CC([*])(C)(C(=O)OC),[*]CC([*])(c1ccccc1),,[*]CC([*])(C)C(=O)OC,[*]CC([*])c1ccccc1
289,82.8,73300.0,82700.0,[C](C)(C)(C#N),[S]C(=S)SCc1ccccc1,[CH2][C](C)(C(=O)OC),0.91,[CH2][CH](c1ccccc1),0.09,[*]CC([*])(C)(C(=O)OC),[*]CC([*])(c1ccccc1),,[*]CC([*])(C)C(=O)OC,[*]CC([*])c1ccccc1
290,82.5,73300.0,82700.0,[C](C)(C)(C#N),[S]C(=S)SCc1ccccc1,[CH2][C](C)(C(=O)OC),0.91,[CH2][CH](c1ccccc1),0.09,[*]CC([*])(C)(C(=O)OC),[*]CC([*])(c1ccccc1),,[*]CC([*])(C)C(=O)OC,[*]CC([*])c1ccccc1
291,103.6,47900.0,53500.0,[C](C)(C)(C#N),[S]C(=S)SCc1ccccc1,[CH2][C](C)(C(=O)OC),0.1,[CH2][CH](c1ccccc1),0.9,[*]CC([*])(C)(C(=O)OC),[*]CC([*])(c1ccccc1),,[*]CC([*])(C)C(=O)OC,[*]CC([*])c1ccccc1
292,106.8,47900.0,53500.0,[C](C)(C)(C#N),[S]C(=S)SCc1ccccc1,[CH2][C](C)(C(=O)OC),0.1,[CH2][CH](c1ccccc1),0.9,[*]CC([*])(C)(C(=O)OC),[*]CC([*])(c1ccccc1),,[*]CC([*])(C)C(=O)OC,[*]CC([*])c1ccccc1
293,103.5,51200.0,56800.0,[C](C)(C)(C#N),[S]C(=S)SCc1ccccc1,[CH2][C](C)(C(=O)OC),0.24,[CH2][CH](c1ccccc1),0.76,[*]CC([*])(C)(C(=O)OC),[*]CC([*])(c1ccccc1),,[*]CC([*])(C)C(=O)OC,[*]CC([*])c1ccccc1
294,106.9,51200.0,56800.0,[C](C)(C)(C#N),[S]C(=S)SCc1ccccc1,[CH2][C](C)(C(=O)OC),0.24,[CH2][CH](c1ccccc1),0.76,[*]CC([*])(C)(C(=O)OC),[*]CC([*])(c1ccccc1),,[*]CC([*])(C)C(=O)OC,[*]CC([*])c1ccccc1
295,95.4,62300.0,69600.0,[C](C)(C)(C#N),[S]C(=S)SCc1ccccc1,[CH2][C](C)(C(=O)OC),0.48,[CH2][CH](c1ccccc1),0.52,[*]CC([*])(C)(C(=O)OC),[*]CC([*])(c1ccccc1),,[*]CC([*])(C)C(=O)OC,[*]CC([*])c1ccccc1
296,90.9,62300.0,69600.0,[C](C)(C)(C#N),[S]C(=S)SCc1ccccc1,[CH2][C](C)(C(=O)OC),0.48,[CH2][CH](c1ccccc1),0.52,[*]CC([*])(C)(C(=O)OC),[*]CC([*])(c1ccccc1),,[*]CC([*])(C)C(=O)OC,[*]CC([*])c1ccccc1
297,102.4,86600.0,96100.0,[C](C)(C)(C#N),[S]C(=S)SCc1ccccc1,[CH2][C](C)(C(=O)OC),0.75,[CH2][CH](c1ccccc1),0.25,[*]CC([*])(C)(C(=O)OC),[*]CC([*])(c1ccccc1),,[*]CC([*])(C)C(=O)OC,[*]CC([*])c1ccccc1
298,105.1,86600.0,96100.0,[C](C)(C)(C#N),[S]C(=S)SCc1ccccc1,[CH2][C](C)(C(=O)OC),0.75,[CH2][CH](c1ccccc1),0.25,[*]CC([*])(C)(C(=O)OC),[*]CC([*])(c1ccccc1),,[*]CC([*])(C)C(=O)OC,[*]CC([*])c1ccccc1
299,79.2,108000.0,123900.0,[C](C)(C)(C#N),[S]C(=S)SCc1ccccc1,[CH2][C](C)(C(=O)OC),0.9,[CH2][CH](c1ccccc1),0.1,[*]CC([*])(C)(C(=O)OC),[*]CC([*])(c1ccccc1),,[*]CC([*])(C)C(=O)OC,[*]CC([*])c1ccccc1
300,83.9,108000.0,123900.0,[C](C)(C)(C#N),[S]C(=S)SCc1ccccc1,[CH2][C](C)(C(=O)OC),0.9,[CH2][CH](c1ccccc1),0.1,[*]CC([*])(C)(C(=O)OC),[*]CC([*])(c1ccccc1),,[*]CC([*])(C)C(=O)OC,[*]CC([*])c1ccccc1
301,103.8,54800.0,62900.0,[C](C)(C)(C#N),[S]C(=S)SCc1ccccc1,[CH2][C](C)(C(=O)OC),0.1,[CH2][CH](c1ccccc1),0.9,[*]CC([*])(C)(C(=O)OC),[*]CC([*])(c1ccccc1),,[*]CC([*])(C)C(=O)OC,[*]CC([*])c1ccccc1
302,105.4,54800.0,62900.0,[C](C)(C)(C#N),[S]C(=S)SCc1ccccc1,[CH2][C](C)(C(=O)OC),0.1,[CH2][CH](c1ccccc1),0.9,[*]CC([*])(C)(C(=O)OC),[*]CC([*])(c1ccccc1),,[*]CC([*])(C)C(=O)OC,[*]CC([*])c1ccccc1
303,103.9,60300.0,68000.0,[C](C)(C)(C#N),[S]C(=S)SCc1ccccc1,[CH2][C](C)(C(=O)OC),0.23,[CH2][CH](c1ccccc1),0.77,[*]CC([*])(C)(C(=O)OC),[*]CC([*])(c1ccccc1),,[*]CC([*])(C)C(=O)OC,[*]CC([*])c1ccccc1
304,105.6,60300.0,68000.0,[C](C)(C)(C#N),[S]C(=S)SCc1ccccc1,[CH2][C](C)(C(=O)OC),0.23,[CH2][CH](c1ccccc1),0.77,[*]CC([*])(C)(C(=O)OC),[*]CC([*])(c1ccccc1),,[*]CC([*])(C)C(=O)OC,[*]CC([*])c1ccccc1
305,104.9,69700.0,80200.0,[C](C)(C)(C#N),[S]C(=S)SCc1ccccc1,[CH2][C](C)(C(=O)OC),0.47,[CH2][CH](c1ccccc1),0.53,[*]CC([*])(C)(C(=O)OC),[*]CC([*])(c1ccccc1),,[*]CC([*])(C)C(=O)OC,[*]CC([*])c1ccccc1
306,105.9,69700.0,80200.0,[C](C)(C)(C#N),[S]C(=S)SCc1ccccc1,[CH2][C](C)(C(=O)OC),0.47,[CH2][CH](c1ccccc1),0.53,[*]CC([*])(C)(C(=O)OC),[*]CC([*])(c1ccccc1),,[*]CC([*])(C)C(=O)OC,[*]CC([*])c1ccccc1
307,86.9,92300.0,105900.0,[C](C)(C)(C#N),[S]C(=S)SCc1ccccc1,[CH2][C](C)(C(=O)OC),0.74,[CH2][CH](c1ccccc1),0.26,[*]CC([*])(C)(C(=O)OC),[*]CC([*])(c1ccccc1),,[*]CC([*])(C)C(=O)OC,[*]CC([*])c1ccccc1
308,85.1,92300.0,105900.0,[C](C)(C)(C#N),[S]C(=S)SCc1ccccc1,[CH2][C](C)(C(=O)OC),0.74,[CH2][CH](c1ccccc1),0.26,[*]CC([*])(C)(C(=O)OC),[*]CC([*])(c1ccccc1),,[*]CC([*])(C)C(=O)OC,[*]CC([*])c1ccccc1
309,86.2,104400.0,132000.0,[C](C)(C)(C#N),[S]C(=S)SCc1ccccc1,[CH2][C](C)(C(=O)OC),0.9,[CH2][CH](c1ccccc1),0.1,[*]CC([*])(C)(C(=O)OC),[*]CC([*])(c1ccccc1),,[*]CC([*])(C)C(=O)OC,[*]CC([*])c1ccccc1
310,82.5,104400.0,132000.0,[C](C)(C)(C#N),[S]C(=S)SCc1ccccc1,[CH2][C](C)(C(=O)OC),0.9,[CH2][CH](c1ccccc1),0.1,[*]CC([*])(C)(C(=O)OC),[*]CC([*])(c1ccccc1),,[*]CC([*])(C)C(=O)OC,[*]CC([*])c1ccccc1
311,99.8,53300.0,64100.0,[C](C)(C)(C#N),[S]C(=S)SCc1ccccc1,[CH2][C](C)(C(=O)OC),0.09,[CH2][CH](c1ccccc1),0.91,[*]CC([*])(C)(C(=O)OC),[*]CC([*])(c1ccccc1),,[*]CC([*])(C)C(=O)OC,[*]CC([*])c1ccccc1